Amorphous polymer generator by L 

0  atoms 
0  bonds 
0  angles 
0  dihedrals 

1 atom types 
1 bond types 
1 angle types 
1 dihedral types 

0.0   -0  xlo xhi 
0.0   -0  ylo yhi 
0.0   -0  zlo zhi 

Masses   

1   0

Atoms   


Bonds 


Angles 


Dihedrals 

